##############################################################################
#                                                                            #
# O-Sr-Ti          # Sr3Ti2O7                                      # 1000318 #
#                                                                            #
##############################################################################
#                                                                            #
#                           Pearson's Crystal Data                           #
#      Crystal Structure Database for Inorganic Compounds (on DVD)           #
#                              Release 2018/19                               #
#                  Editors: Pierre Villars and Karin Cenzual                 #
#                                                                            #
#   Copyright (c) ASM International & Material Phases Data System (MPDS),    #
# Switzerland & National Institute for Materials Science (NIMS), Japan, 2018 #
#                   All rights reserved. Version 2018.08                     #
#                                                                            #
#   This copy of Pearson's Crystal Data is licensed to:                      #
#   University of Alberta, Chemistry Department, 1-5 Installations License         #
#                                                                            #
##############################################################################

data_1000318
_audit_creation_date                     2024-10-29
_audit_creation_method
;
Pearson's Crystal Data browser
;
#_database_code_PCD                      1000318

# Entry summary

_chemical_formula_structural             'Sr~3~ Ti~2~ O~7~'
_chemical_formula_sum                    'O7 Sr3 Ti2'
_chemical_name_mineral                   ?
_chemical_compound_source                ?
_chemical_name_structure_type            Sr~3~Ti~2~O~7~,tI24,139
_chemical_formula_weight                 470.7

# Bibliographic data

_publ_section_title
'The compound Sr~3~Ti~2~O~7~ and its structure'                               
_journal_coden_ASTM                      ACCRA9
_journal_name_full                       'Acta Crystallogr.'
_journal_year                            1958
_journal_volume                          11
_journal_page_first                      54
_journal_page_last                       55
_journal_language                        English
loop_
 _publ_author_name
 _publ_author_address
'Ruddlesden S.N.'
;
British Ceramic Research Association
Stoke-on-Trent
United Kingdom
;
'Popper P.'
;
British Ceramic Research Association
Stoke-on-Trent
United Kingdom
;

# Standardized crystallographic data

_cell_length_a                           3.9
_cell_length_b                           3.9
_cell_length_c                           20.38
_cell_angle_alpha                        90
_cell_angle_beta                         90
_cell_angle_gamma                        90
_cell_volume                             310
_cell_formula_units_Z                    2
_space_group_IT_number                   139
_space_group_name_H-M_alt                'I 4/m m m'
loop_
 _space_group_symop_id
 _space_group_symop_operation_xyz
 1 'x, y, z'
 2 '-x, -y, -z'
 3 '-x, -y, z'
 4 '-x, y, -z'
 5 '-x, y, z'
 6 '-y, -x, -z'
 7 '-y, -x, z'
 8 '-y, x, -z'
 9 '-y, x, z'
 10 'x, -y, -z'
 11 'x, -y, z'
 12 'x, y, -z'
 13 'y, -x, -z'
 14 'y, -x, z'
 15 'y, x, -z'
 16 'y, x, z'
 17 '1/2+x, 1/2+y, 1/2+z'
 18 '1/2-x, 1/2-y, 1/2-z'
 19 '1/2-x, 1/2-y, 1/2+z'
 20 '1/2-x, 1/2+y, 1/2-z'
 21 '1/2-x, 1/2+y, 1/2+z'
 22 '1/2-y, 1/2-x, 1/2-z'
 23 '1/2-y, 1/2-x, 1/2+z'
 24 '1/2-y, 1/2+x, 1/2-z'
 25 '1/2-y, 1/2+x, 1/2+z'
 26 '1/2+x, 1/2-y, 1/2-z'
 27 '1/2+x, 1/2-y, 1/2+z'
 28 '1/2+x, 1/2+y, 1/2-z'
 29 '1/2+y, 1/2-x, 1/2-z'
 30 '1/2+y, 1/2-x, 1/2+z'
 31 '1/2+y, 1/2+x, 1/2-z'
 32 '1/2+y, 1/2+x, 1/2+z'
loop_
 _atom_type_symbol
 O
 Ti
 Sr
loop_
 _atom_site_label
 _atom_site_type_symbol
 _atom_site_symmetry_multiplicity
 _atom_site_Wyckoff_symbol
 _atom_site_fract_x
 _atom_site_fract_y
 _atom_site_fract_z
 _atom_site_occupancy
 O2 O 8 g 0 0.5 0.094 1
 Ti Ti 4 e 0 0 0.094 1
 O3 O 4 e 0 0 0.188 1
 Sr2 Sr 4 e 0 0 0.312 1
 Sr1 Sr 2 b 0 0 0.5 1
 O1 O 2 a 0 0 0 1


_exptl_crystal_colour                    ?
_exptl_crystal_density_meas              ?
_exptl_crystal_density_diffrn            5.04
_cell_measurement_temperature            ?
_cell_measurement_radiation              'X-rays, Co Ka'
_cell_measurement_reflns_used            ?
_diffrn_ambient_temperature              ?
_diffrn_measurement_device               film
_diffrn_measurement_device_type          ?
_diffrn_radiation_type                   'X-rays, Co Ka'
_diffrn_reflns_number                    ?
_exptl_absorpt_coefficient_mu            ?
_exptl_absorpt_correction_type           ?
_computing_structure_solution            'crystal chemical considerations'
_refine_ls_number_parameters             ?
_refine_ls_number_reflns                 ?
_refine_ls_R_factor_gt                   ?
_refine_ls_wR_factor_gt                  ?
_pd_proc_ls_proof_R_factor               ?
_pd_proc_ls_proof_wR_factor              ?
_refine_ls_R_I_factor                    ?

# Published diffraction lines

loop_
 _refln_index_h
 _refln_index_k
 _refln_index_l
 _refln_d_spacing
 _refln_intensity_meas
 1 0 1 38.4 10
 0 0 6 33.9 10
 1 0 5 28.3 100
 1 1 0 27.5 60
 1 1 2 26.6 2
 0 0 8 25.5 2
 1 1 4 24.2 5
 1 0 7 23.3 2
 1 1 6 21.4 30
 0 0 10 20.4 10
 2 0 0 19.5 50
 1 1 8 18.7 2
 2 1 1 17.4 2
 0 0 12 16.93 5
 1 0 11 16.7 5
 1 1 10 16.38 15
 2 1 5 16.02 30
 2 0 8 15.46 2
 2 1 7 14.95 2
 1 1 12 14.46 2
 2 0 10 14.09 15
 2 2 0 13.79 10
 1 0 15 12.81 5
 2 1 11 12.7 2
 3 0 5 12.39 5
 3 1 0 12.35 5
 3 1 6 11.6 5
 1 1 16 11.56 5
 1 0 17 11.43 10
 2 1 15 10.72 5
 2 0 16 10.66 2
 3 1 10 10.55 10
 3 2 5 10.46 10
 1 0 19 10.34 2
 3 2 7 10.14 2
 3 1 12 9.98 5
 2 1 17 9.87 5
 4 0 0 9.76 5
 3 0 15 9.39 5
 2 2 16 9.34 5
 0 0 22 9.26 2
 4 1 5 9.21 15
 3 3 0 9.19 5
 2 1 19 9.13 2

# End of data set 1000318

