##############################################################################
#                                                                            #
# Al-Na-O          # NaAl11O17                                     #  313633 #
#                                                                            #
##############################################################################
#                                                                            #
#                           Pearson's Crystal Data                           #
#      Crystal Structure Database for Inorganic Compounds (on DVD)           #
#                              Release 2018/19                               #
#                  Editors: Pierre Villars and Karin Cenzual                 #
#                                                                            #
#   Copyright (c) ASM International & Material Phases Data System (MPDS),    #
# Switzerland & National Institute for Materials Science (NIMS), Japan, 2018 #
#                   All rights reserved. Version 2018.08                     #
#                                                                            #
#   This copy of Pearson's Crystal Data is licensed to:                      #
#   University of Alberta, Chemistry Department, 1-5 Installations License         #
#                                                                            #
##############################################################################

data_313633
_audit_creation_date                     2024-10-29
_audit_creation_method
;
Pearson's Crystal Data browser
;
#_database_code_PCD                      313633

# Entry summary

_chemical_formula_structural             'Na Al~11~ O~17~'
_chemical_formula_sum                    'Al11 Na O17'
_chemical_name_mineral                   diaoyudaoite
_chemical_compound_source                ?
_chemical_name_structure_type            Ba~0.75~Al~11~O~17.25~,hP76,194
_chemical_formula_weight                 591.8

# Bibliographic data

_publ_section_title
;
Phase diagram of the system Na~2~O.Ga~2~O~3~-Ga~2~O~3~ and its relation to the system Na~2~O.Al~2~O~3~-Al~2~O~3~
;
_journal_coden_ASTM                      JACTAW
_journal_name_full                       'J. Am. Ceram. Soc.'
_journal_year                            1980
_journal_volume                          63
_journal_page_first                      509
_journal_page_last                       512
_journal_language                        English
loop_
 _publ_author_name
 _publ_author_address
'Foster L.M.'
;
International Business Machines Corp. (IBM)
Thomas J. Watson Research Center
Yorktown Heights
U.S.A. New York
;
'Chandrashekhar G.V.'
;
International Business Machines Corp. (IBM)
Thomas J. Watson Research Center
Yorktown Heights
U.S.A. New York
;
'Scardefield J.E.'
;
International Business Machines Corp. (IBM)
Thomas J. Watson Research Center
Yorktown Heights
U.S.A. New York
;
'Bradford R.B.'
;
International Business Machines Corp. (IBM)
Thomas J. Watson Research Center
Yorktown Heights
U.S.A. New York
;

# Standardized crystallographic data

_cell_length_a                           5.594
_cell_length_b                           5.594
_cell_length_c                           22.53
_cell_angle_alpha                        90
_cell_angle_beta                         90
_cell_angle_gamma                        120
_cell_volume                             610.6
_cell_formula_units_Z                    2
_space_group_IT_number                   194
_space_group_name_H-M_alt                'P 63/m m c'
loop_
 _space_group_symop_id
 _space_group_symop_operation_xyz
 1 'x, y, z'
 2 '-x+y, -x, 1/2-z'
 3 '-x+y, -x, z'
 4 '-x+y, y, 1/2-z'
 5 '-x+y, y, z'
 6 '-x, -x+y, -z'
 7 '-x, -x+y, 1/2+z'
 8 '-x, -y, -z'
 9 '-x, -y, 1/2+z'
 10 '-y, -x, 1/2-z'
 11 '-y, -x, z'
 12 '-y, x-y, 1/2-z'
 13 '-y, x-y, z'
 14 'x, x-y, 1/2-z'
 15 'x, x-y, z'
 16 'x, y, 1/2-z'
 17 'x-y, -y, -z'
 18 'x-y, -y, 1/2+z'
 19 'x-y, x, -z'
 20 'x-y, x, 1/2+z'
 21 'y, -x+y, -z'
 22 'y, -x+y, 1/2+z'
 23 'y, x, -z'
 24 'y, x, 1/2+z'

# Atomic positions taken from type-defining entry

loop_
 _atom_type_symbol
 Al
 O
 Na
loop_
 _atom_site_label
 _atom_site_type_symbol
 _atom_site_symmetry_multiplicity
 _atom_site_Wyckoff_symbol
 _atom_site_fract_x
 _atom_site_fract_y
 _atom_site_fract_z
 _atom_site_occupancy
 Al1 Al 12 k 0.159 0.318 0.1745 0.094
 O1 O 12 k 0.1594 0.3189 0.55 1
 Al2 Al 12 k 0.1672 0.3345 0.1044 0.906
 O2 O 12 k 0.5036 0.0072 0.6457 1
 O3 O 6 h 0.125 0.25 0.25 0.094
 O4 O 4 f 0.333333 0.666667 0.0545 1
 Al3 Al 4 f 0.333333 0.666667 0.5239 1
 Al4 Al 4 f 0.333333 0.666667 0.6753 1
 O5 O 4 e 0 0 0.1426 1
 O6 O 2 d 0.333333 0.666667 0.75 1
 Na1 Na 2 c 0.333333 0.666667 0.25 1
 Al5 Al 2 a 0 0 0 1


_exptl_crystal_colour                    ?
_exptl_crystal_density_meas              ?
_exptl_crystal_density_diffrn            3.22
_cell_measurement_temperature            ?
_cell_measurement_radiation              X-rays
_cell_measurement_reflns_used            ?
_diffrn_ambient_temperature              ?
_diffrn_measurement_device               film
_diffrn_measurement_device_type          ?
_diffrn_radiation_type                   ?
_diffrn_reflns_number                    ?
_exptl_absorpt_coefficient_mu            ?
_exptl_absorpt_correction_type           ?
_computing_structure_solution            ?
_refine_ls_number_parameters             ?
_refine_ls_number_reflns                 ?
_refine_ls_R_factor_gt                   ?
_refine_ls_wR_factor_gt                  ?

# End of data set 313633

