##############################################################################
#                                                                            #
# O-Sr-Ti          # Sr4Ti3O10                                     # 1000319 #
#                                                                            #
##############################################################################
#                                                                            #
#                           Pearson's Crystal Data                           #
#      Crystal Structure Database for Inorganic Compounds (on DVD)           #
#                              Release 2018/19                               #
#                  Editors: Pierre Villars and Karin Cenzual                 #
#                                                                            #
#   Copyright (c) ASM International & Material Phases Data System (MPDS),    #
# Switzerland & National Institute for Materials Science (NIMS), Japan, 2018 #
#                   All rights reserved. Version 2018.08                     #
#                                                                            #
#   This copy of Pearson's Crystal Data is licensed to:                      #
#   University of Alberta, Chemistry Department, 1-5 Installations License         #
#                                                                            #
##############################################################################

data_1000319
_audit_creation_date                     2024-10-29
_audit_creation_method
;
Pearson's Crystal Data browser
;
#_database_code_PCD                      1000319

# Entry summary

_chemical_formula_structural             'Sr~4~ Ti~3~ O~10~'
_chemical_formula_sum                    'O10 Sr4 Ti3'
_chemical_name_mineral                   ?
_chemical_compound_source                ?
_chemical_name_structure_type            Sr~4~Ti~3~O~10~,tI34,139
_chemical_formula_weight                 654.2

# Bibliographic data

_publ_section_title
'The compound Sr~3~Ti~2~O~7~ and its structure'                               
_journal_coden_ASTM                      ACCRA9
_journal_name_full                       'Acta Crystallogr.'
_journal_year                            1958
_journal_volume                          11
_journal_page_first                      54
_journal_page_last                       55
_journal_language                        English
loop_
 _publ_author_name
 _publ_author_address
'Ruddlesden S.N.'
;
British Ceramic Research Association
Stoke-on-Trent
United Kingdom
;
'Popper P.'
;
British Ceramic Research Association
Stoke-on-Trent
United Kingdom
;

# Standardized crystallographic data

_cell_length_a                           3.9
_cell_length_b                           3.9
_cell_length_c                           28.1
_cell_angle_alpha                        90
_cell_angle_beta                         90
_cell_angle_gamma                        90
_cell_volume                             427.4
_cell_formula_units_Z                    2
_space_group_IT_number                   139
_space_group_name_H-M_alt                'I 4/m m m'
loop_
 _space_group_symop_id
 _space_group_symop_operation_xyz
 1 'x, y, z'
 2 '-x, -y, -z'
 3 '-x, -y, z'
 4 '-x, y, -z'
 5 '-x, y, z'
 6 '-y, -x, -z'
 7 '-y, -x, z'
 8 '-y, x, -z'
 9 '-y, x, z'
 10 'x, -y, -z'
 11 'x, -y, z'
 12 'x, y, -z'
 13 'y, -x, -z'
 14 'y, -x, z'
 15 'y, x, -z'
 16 'y, x, z'
 17 '1/2+x, 1/2+y, 1/2+z'
 18 '1/2-x, 1/2-y, 1/2-z'
 19 '1/2-x, 1/2-y, 1/2+z'
 20 '1/2-x, 1/2+y, 1/2-z'
 21 '1/2-x, 1/2+y, 1/2+z'
 22 '1/2-y, 1/2-x, 1/2-z'
 23 '1/2-y, 1/2-x, 1/2+z'
 24 '1/2-y, 1/2+x, 1/2-z'
 25 '1/2-y, 1/2+x, 1/2+z'
 26 '1/2+x, 1/2-y, 1/2-z'
 27 '1/2+x, 1/2-y, 1/2+z'
 28 '1/2+x, 1/2+y, 1/2-z'
 29 '1/2+y, 1/2-x, 1/2-z'
 30 '1/2+y, 1/2-x, 1/2+z'
 31 '1/2+y, 1/2+x, 1/2-z'
 32 '1/2+y, 1/2+x, 1/2+z'
loop_
 _atom_type_symbol
 O
 Ti
 Sr
loop_
 _atom_site_label
 _atom_site_type_symbol
 _atom_site_symmetry_multiplicity
 _atom_site_Wyckoff_symbol
 _atom_site_fract_x
 _atom_site_fract_y
 _atom_site_fract_z
 _atom_site_occupancy
 O3 O 8 g 0 0.5 0.136 1
 O2 O 4 e 0 0 0.068 1
 Ti2 Ti 4 e 0 0 0.136 1
 O4 O 4 e 0 0 0.204 1
 Sr2 Sr 4 e 0 0 0.296 1
 Sr1 Sr 4 e 0 0 0.432 1
 O1 O 4 c 0 0.5 0 1
 Ti1 Ti 2 a 0 0 0 1


_exptl_crystal_colour                    ?
_exptl_crystal_density_meas              ?
_exptl_crystal_density_diffrn            5.08
_cell_measurement_temperature            ?
_cell_measurement_radiation              'X-rays, Co Ka'
_cell_measurement_reflns_used            ?
_diffrn_ambient_temperature              ?
_diffrn_measurement_device               film
_diffrn_measurement_device_type          ?
_diffrn_radiation_type                   'X-rays, Co Ka'
_diffrn_reflns_number                    ?
_exptl_absorpt_coefficient_mu            ?
_exptl_absorpt_correction_type           ?
_computing_structure_solution            'crystal chemical considerations'
_refine_ls_number_parameters             ?
_refine_ls_number_reflns                 ?
_refine_ls_R_factor_gt                   ?
_refine_ls_wR_factor_gt                  ?
_pd_proc_ls_proof_R_factor               ?
_pd_proc_ls_proof_wR_factor              ?
_refine_ls_R_I_factor                    ?

# End of data set 1000319

